 &FCI NORB=  12,NELEC=14,MS2=0,
  ORBSYM=1,1,1,1,1,1,1,1,1,1,1,1,
  ISYM=1,
 &END
 0.2650838212114058    1    1    1    1
 0.002042977186657434    2    1    1    1
 0.03377503720342672    2    1    2    1
 0.2253951451609598    2    2    1    1
 -0.003820515474122575    2    2    2    1
 0.2078499355118165    2    2    2    2
 4.845614542794442e-05    3    1    1    1
 0.002751629101229985    3    1    2    1
 -0.001370117440858955    3    1    2    2
 0.006766380078845194    3    1    3    1
 0.01933197807508923    3    2    1    1
 -0.0006113800530575536    3    2    2    1
 0.01292488976600103    3    2    2    2
 5.428534692950583e-06    3    2    3    1
 0.008129765650769324    3    2    3    2
 0.2940043359313327    3    3    1    1
 0.001919782171161273    3    3    2    1
 0.2427166399459867    3    3    2    2
 -0.0004382065804379106    3    3    3    1
 0.03064679622071854    3    3    3    2
 0.4112870927853919    3    3    3    3
 0.001161761427255824    4    1    1    1
 0.000123227822314917    4    1    2    1
 0.0007651781687970533    4    1    2    2
 0.0001087586044885148    4    1    3    1
 0.0003561044128894424    4    1    3    2
 0.001652391752716478    4    1    3    3
 0.006033586859104682    4    1    4    1
 -0.001243177644010153    4    2    1    1
 0.001128314058529197    4    2    2    1
 -0.001044526999231395    4    2    2    2
 0.002149602468770782    4    2    3    1
 9.79666520577561e-05    4    2    3    2
 -0.0009687463543415223    4    2    3    3
 0.002303436429656894    4    2    4    1
 0.0549858367183761    4    2    4    2
 0.0002803856136936579    4    3    1    1
 2.049907308195014e-05    4    3    2    1
 0.0002331940029249677    4    3    2    2
 -0.0004188352676036185    4    3    3    1
 -6.366895609321018e-05    4    3    3    2
 0.000224777777327253    4    3    3    3
 -0.0003883923400045043    4    3    4    1
 -0.009269912397741354    4    3    4    2
 0.01400235495842257    4    3    4    3
 0.3034366135469544    4    4    1    1
 0.002653141956572884    4    4    2    1
 0.2515073531956577    4    4    2    2
 -0.0005790139528979504    4    4    3    1
 0.0291294340357043    4    4    3    2
 0.4138724876254053    4    4    3    3
 0.002019639163233732    4    4    4    1
 -0.001209930188940484    4    4    4    2
 0.0002537431209400442    4    4    4    3
 0.4670854824121943    4    4    4    4
 -0.0003592674381440059    5    1    1    1
 0.0001277066333055536    5    1    2    1
 -0.0001695542309909753    5    1    2    2
 0.0008988832554255067    5    1    3    1
 9.013053587760135e-05    5    1    3    2
 8.560630916738179e-05    5    1    3    3
 0.0009980352710405413    5    1    4    1
 0.02303436190726906    5    1    4    2
 -0.002150508153421055    5    1    4    3
 3.2346412688687e-05    5    1    4    4
 0.01601681815264958    5    1    5    1
 0.0005008264900202923    5    2    1    1
 0.0001112899957880779    5    2    2    1
 0.0001937094961656762    5    2    2    2
 1.90732688064986e-05    5    2    3    1
 0.0001456666924504772    5    2    3    2
 0.001427460663311989    5    2    3    3
 0.001486886903798393    5    2    4    1
 -0.0007663489919854216    5    2    4    2
 0.0001684447797671545    5    2    4    3
 0.001608768499742867    5    2    4    4
 -0.0001330312143566467    5    2    5    1
 0.003703619427156175    5    2    5    2
 1.106843010199816e-05    5    3    1    1
 -2.587253729292869e-05    5    3    2    1
 -0.0001052191326923925    5    3    2    2
 -5.72527480279382e-05    5    3    3    1
 5.796793342961946e-06    5    3    3    2
 -0.0002819476283443863    5    3    3    3
 -0.0001684130806358598    5    3    4    1
 -0.0004915277422337862    5    3    4    2
 0.0001283747036657072    5    3    4    3
 -0.0004627333385705338    5    3    4    4
 -0.0003560550185718376    5    3    5    1
 -0.000120207222630743    5    3    5    2
 0.006567900656146854    5    3    5    3
 0.000240641720696305    5    4    1    1
 0.0001806744489272241    5    4    2    1
 -0.0007812937073561453    5    4    2    2
 -0.002296698955048871    5    4    3    1
 -0.0001017707736211959    5    4    3    2
 -0.0001507772516458583    5    4    3    3
 1.638648807558012e-05    5    4    4    1
 0.0004160962279012874    5    4    4    2
 -2.167024301579667e-05    5    4    4    3
 -0.000205692430331627    5    4    4    4
 0.0002912474552446035    5    4    5    1
 -4.049334407049189e-06    5    4    5    2
 2.262877614833743e-05    5    4    5    3
 0.01194737857218475    5    4    5    4
 0.2776331331781771    5    5    1    1
 0.001924545034417132    5    5    2    1
 0.2314443749359398    5    5    2    2
 -0.0003658812137619662    5    5    3    1
 0.02673248274640933    5    5    3    2
 0.3699616285667675    5    5    3    3
 0.001367788568413091    5    5    4    1
 -0.0008172293795084746    5    5    4    2
 0.000120746444788129    5    5    4    3
 0.3824697089323728    5    5    4    4
 7.454464331503976e-05    5    5    5    1
 0.001379944728042264    5    5    5    2
 -0.0002681412341576999    5    5    5    3
 -0.0001989362089317975    5    5    5    4
 0.3556998107034828    5    5    5    5
 -1.831704080070787e-05    6    1    1    1
 -0.0001095990494551084    6    1    2    1
 0.0002686178277153216    6    1    2    2
 -3.387642844749031e-05    6    1    3    1
 -5.199863254116891e-05    6    1    3    2
 -0.001190974340140154    6    1    3    3
 -2.992163436772241e-05    6    1    4    1
 -0.001664642844706713    6    1    4    2
 0.0001475825937874128    6    1    4    3
 -0.001136093518348382    6    1    4    4
 -0.0009035708132667133    6    1    5    1
 -0.0001034550024616218    6    1    5    2
 -0.0007451223002017879    6    1    5    3
 -1.249979858100087e-05    6    1    5    4
 -0.001064967076961757    6    1    5    5
 0.003109263105962146    6    1    6    1
 0.0002947092978069748    6    2    1    1
 0.0007444754893799927    6    2    2    1
 6.615014071758983e-06    6    2    2    2
 -0.0002204255064640626    6    2    3    1
 5.141210194584265e-05    6    2    3    2
 0.0004416109956837217    6    2    3    3
 -0.0003550382044918179    6    2    4    1
 -0.006112927188852344    6    2    4    2
 -0.00229219236473263    6    2    4    3
 0.0005851225331029082    6    2    4    4
 -0.004266990169333223    6    2    5    1
 1.777037949380416e-05    6    2    5    2
 0.000122168015831707    6    2    5    3
 -0.0002488055843563229    6    2    5    4
 0.0004209487525352197    6    2    5    5
 0.000320799095434668    6    2    6    1
 0.005063092196883356    6    2    6    2
 0.0008601683410705428    6    3    1    1
 -0.0009293389562621251    6    3    2    1
 0.0006431554995925339    6    3    2    2
 -0.002114948725784886    6    3    3    1
 -0.0001618040076655854    6    3    3    2
 0.0001534452546986062    6    3    3    3
 -0.001862322154868869    6    3    4    1
 -0.04533952251350776    6    3    4    2
 0.01053504705059141    6    3    4    3
 0.0001795623229293293    6    3    4    4
 -0.02385272003756034    6    3    5    1
 0.000621295014341261    6    3    5    2
 0.0006907122045783796    6    3    5    3
 -0.0001155738381079911    6    3    5    4
 6.94364310212993e-05    6    3    5    5
 0.001699519509561105    6    3    6    1
 0.007109639681035601    6    3    6    2
 0.06037490844169122    6    3    6    3
 0.002717610884944306    6    4    1    1
 -7.163883733285611e-06    6    4    2    1
 0.0005757708744335163    6    4    2    2
 -7.935755435766662e-05    6    4    3    1
 -0.003187536975823014    6    4    3    2
 0.005295071011170022    6    4    3    3
 -9.099063653328651e-05    6    4    4    1
 0.0004858636931601775    6    4    4    2
 -9.541938293334747e-05    6    4    4    3
 0.005778498161513841    6    4    4    4
 0.0002252194103326647    6    4    5    1
 -0.0001230093985626314    6    4    5    2
 5.56097663231738e-06    6    4    5    3
 -3.082013213333985e-06    6    4    5    4
 0.002450132979666869    6    4    5    5
 -8.6514019116791e-05    6    4    6    1
 -4.904322473600842e-05    6    4    6    2
 -0.0004757067313546734    6    4    6    3
 0.01230561763453879    6    4    6    4
 3.777172422381777e-05    6    5    1    1
 0.003418547121938478    6    5    2    1
 0.0005393851991227528    6    5    2    2
 -0.001245579216341083    6    5    3    1
 -5.309225110933711e-05    6    5    3    2
 -3.027623103122671e-05    6    5    3    3
 -0.0001253118890879269    6    5    4    1
 -0.00321515080786279    6    5    4    2
 0.0006358008944138766    6    5    4    3
 9.843398288886182e-05    6    5    4    4
 -0.001625381692169235    6    5    5    1
 5.278833616842136e-05    6    5    5    2
 5.983418114881875e-05    6    5    5    3
 0.0003722709357157085    6    5    5    4
 0.0001045226426672147    6    5    5    5
 0.0001242909544989819    6    5    6    1
 0.000539809621019001    6    5    6    2
 0.003257818033328243    6    5    6    3
 -1.43655978344593e-05    6    5    6    4
 0.0097368055361267    6    5    6    5
 0.2811428781128938    6    6    1    1
 0.002350813544919604    6    6    2    1
 0.2305156552136529    6    6    2    2
 -7.738944543625995e-05    6    6    3    1
 0.02470593002069359    6    6    3    2
 0.3746860661699788    6    6    3    3
 0.00154791015121808    6    6    4    1
 -0.0003990361717780222    6    6    4    2
 3.937713838775357e-05    6    6    4    3
 0.3952851726051066    6    6    4    4
 0.0002516157461434903    6    6    5    1
 0.001592719476305256    6    6    5    2
 0.0001071361367852066    6    6    5    3
 -0.0001665631131106763    6    6    5    4
 0.34910294423944    6    6    5    5
 -0.001450075674389718    6    6    6    1
 0.0004835769825632005    6    6    6    2
 -0.0004106604139470433    6    6    6    3
 0.004870782008015362    6    6    6    4
 8.161543442756401e-05    6    6    6    5
 0.3823492552733477    6    6    6    6
 -0.001625811599690129    7    1    1    1
 -0.01803623358126298    7    1    2    1
 0.003202951859889649    7    1    2    2
 -0.001869738747851973    7    1    3    1
 0.0003688249204165165    7    1    3    2
 0.0006443613309913464    7    1    3    3
 -0.0001176783432815898    7    1    4    1
 0.0003360837943201669    7    1    4    2
 0.0001509843154062932    7    1    4    3
 0.001090671762564645    7    1    4    4
 0.0004947520314389298    7    1    5    1
 -5.751515199933423e-05    7    1    5    2
 1.955533811783466e-05    7    1    5    3
 0.001068508599189431    7    1    5    4
 0.0006809280048051286    7    1    5    5
 -3.930272375398639e-05    7    1    6    1
 -0.0006686940584108747    7    1    6    2
 -0.0003380554043626975    7    1    6    3
 -3.290099296230277e-05    7    1    6    4
 0.002207550755815314    7    1    6    5
 0.0006588187898730329    7    1    6    6
 0.01809452065127269    7    1    7    1
 0.02039601985138956    7    2    1    1
 0.003031061048272636    7    2    2    1
 0.01019404669879103    7    2    2    2
 0.0003251504352895158    7    2    3    1
 0.004143555287606837    7    2    3    2
 0.06209881384620807    7    2    3    3
 0.0004055108348938929    7    2    4    1
 -0.0004088739036072443    7    2    4    2
 0.0001270757183188036    7    2    4    3
 0.08114205513622418    7    2    4    4
 -5.679300107202467e-05    7    2    5    1
 0.0006898792702361801    7    2    5    2
 -0.0001451138845584332    7    2    5    3
 0.0001120993338783618    7    2    5    4
 0.05459332638994797    7    2    5    5
 -0.0007691235726333408    7    2    6    1
 0.0002389231291364291    7    2    6    2
 0.0001012065351661891    7    2    6    3
 0.00181874159293729    7    2    6    4
 -1.538337998933534e-05    7    2    6    5
 0.06354120463380587    7    2    6    6
 -0.0004155388042361339    7    2    7    1
 0.03518311311177472    7    2    7    2
 0.00743490361061801    7    3    1    1
 0.000388220534627043    7    3    2    1
 0.005638576970455798    7    3    2    2
 5.094882060420872e-05    7    3    3    1
 0.005363806410679491    7    3    3    2
 0.01852954345820476    7    3    3    3
 0.000285810211826952    7    3    4    1
 0.0008247402958090838    7    3    4    2
 -0.0001617665021724391    7    3    4    3
 0.02015914472346848    7    3    4    4
 0.0004314796289649261    7    3    5    1
 0.0001819839755096268    7    3    5    2
 -8.322575528206464e-05    7    3    5    3
 -9.921254668296081e-05    7    3    5    4
 0.01650572329640665    7    3    5    5
 -0.0001083115927409798    7    3    6    1
 -6.40832590239684e-05    7    3    6    2
 -0.0009194867825031199    7    3    6    3
 -0.006504564290479152    7    3    6    4
 -0.0001004998441703417    7    3    6    5
 0.01237901860759046    7    3    6    6
 5.92403169349213e-05    7    3    7    1
 0.007673760451091775    7    3    7    2
 0.01088040871278338    7    3    7    3
 -0.001196143079822501    7    4    1    1
 0.001469760314169892    7    4    2    1
 -0.0009808829385806531    7    4    2    2
 0.003356722685678543    7    4    3    1
 0.0003686588575246343    7    4    3    2
 0.0001663505079078411    7    4    3    3
 0.003601329281503617    7    4    4    1
 0.08809705946195603    7    4    4    2
 -0.01796525162968739    7    4    4    3
 0.0002137312717971831    7    4    4    4
 0.03687980017181777    7    4    5    1
 -0.000796168418438763    7    4    5    2
 -0.0009612937242946631    7    4    5    3
 0.0005582453111130047    7    4    5    4
 0.0002591014313313412    7    4    5    5
 -0.002748879973273124    7    4    6    1
 -0.008723539501219464    7    4    6    2
 -0.07492278360870692    7    4    6    3
 0.0007753456088733767    7    4    6    4
 -0.005273255426888641    7    4    6    5
 0.001072807533503469    7    4    6    6
 0.0007790021030194097    7    4    7    1
 -2.963835936972956e-05    7    4    7    2
 0.001583768210958816    7    4    7    3
 0.1479603805164648    7    4    7    4
 0.0001450392595706    7    5    1    1
 -0.00012461439823538    7    5    2    1
 0.0003057851610905261    7    5    2    2
 4.4097859709334e-05    7    5    3    1
 8.485354009324732e-05    7    5    3    2
 0.0002076248099593389    7    5    3    3
 0.003853681604318405    7    5    4    1
 0.0004145533145125133    7    5    4    2
 -0.0001403077816586735    7    5    4    3
 6.495578646427564e-05    7    5    4    4
 0.0001861448485860925    7    5    5    1
 0.002533125255640789    7    5    5    2
 0.0004902912419444817    7    5    5    3
 1.454850864171507e-05    7    5    5    4
 8.328680810307159e-05    7    5    5    5
 0.0009056201846518821    7    5    6    1
 -0.0001353857716029057    7    5    6    2
 -0.0002945691988406162    7    5    6    3
 -0.0003207080616725    7    5    6    4
 -3.259191543187663e-05    7    5    6    5
 -0.0003408463251023692    7    5    6    6
 3.913128083597354e-05    7    5    7    1
 -0.0001449512795639772    7    5    7    2
 7.834046039070376e-05    7    5    7    3
 0.0004865343553401851    7    5    7    4
 0.009604243133906582    7    5    7    5
 -0.0008065525954810033    7    6    1    1
 0.0001148148779016064    7    6    2    1
 -0.0004852270914590574    7    6    2    2
 0.001343106490114117    7    6    3    1
 0.0001515722190947677    7    6    3    2
 -0.0003656973225048811    7    6    3    3
 0.001275042713753281    7    6    4    1
 0.03485383871867785    7    6    4    2
 -0.01267913838460757    7    6    4    3
 -0.0001726587431759751    7    6    4    4
 0.01515740905312781    7    6    5    1
 -0.0006419105469881502    7    6    5    2
 -0.0004566638442378748    7    6    5    3
 -0.0001385255224512553    7    6    5    4
 -0.0002416424995694243    7    6    5    5
 -0.001116548495703808    7    6    6    1
 6.916215891688823e-05    7    6    6    2
 -0.03551782590433845    7    6    6    3
 0.0003999585293177816    7    6    6    4
 -0.002507280709972258    7    6    6    5
 0.0001489276777414894    7    6    6    6
 0.0005108295111390153    7    6    7    1
 -0.0001447592565527035    7    6    7    2
 0.0006210569250567665    7    6    7    3
 0.06046090209635572    7    6    7    4
 0.0002294272837549549    7    6    7    5
 0.03643406967016344    7    6    7    6
 0.2815801884482666    7    7    1    1
 0.001206363470538329    7    7    2    1
 0.2386705501016779    7    7    2    2
 -0.000502828151730909    7    7    3    1
 0.02522931580263047    7    7    3    2
 0.3557670443332038    7    7    3    3
 0.00162472640229442    7    7    4    1
 -0.0004996448590168373    7    7    4    2
 0.0002809911270602947    7    7    4    3
 0.3911200648522165    7    7    4    4
 0.0002263490549697989    7    7    5    1
 0.001105187074853626    7    7    5    2
 -0.0003348398193011043    7    7    5    3
 -0.0001276811771646029    7    7    5    4
 0.3314374749957973    7    7    5    5
 -0.0005525178387846778    7    7    6    1
 0.0003043708117959138    7    7    6    2
 -9.836533355047219e-05    7    7    6    3
 0.00823974244056672    7    7    6    4
 3.834238390207004e-05    7    7    6    5
 0.3417398813439685    7    7    6    6
 0.0005419423207675509    7    7    7    1
 0.05334821790781333    7    7    7    2
 0.01493737323393952    7    7    7    3
 0.0007268405946101778    7    7    7    4
 0.0001246397248366244    7    7    7    5
 1.087979360014555e-05    7    7    7    6
 0.3456667959096741    7    7    7    7
 0.0002953927948430949    8    1    1    1
 0.01004134119799817    8    1    2    1
 -0.002555864655896556    8    1    2    2
 0.003143039085813251    8    1    3    1
 -0.0003705228551423528    8    1    3    2
 -0.001518764704022636    8    1    3    3
 -7.28877176501544e-05    8    1    4    1
 -0.002831982398498821    8    1    4    2
 0.0005953558979668534    8    1    4    3
 -0.002053236064975675    8    1    4    4
 -0.001685882059237394    8    1    5    1
 5.025452513518303e-05    8    1    5    2
 3.05317840050834e-05    8    1    5    3
 -0.002117254874743619    8    1    5    4
 -0.00135871496497452    8    1    5    5
 9.261103521869189e-05    8    1    6    1
 0.0008166045832109711    8    1    6    2
 0.003021339670513187    8    1    6    3
 0.0001737351297538131    8    1    6    4
 0.0001490514260128694    8    1    6    5
 -0.001617394336231164    8    1    6    6
 -0.008045224997553144    8    1    7    1
 4.019257399782548e-05    8    1    7    2
 -0.0002557395574754922    8    1    7    3
 -0.00484973199121419    8    1    7    4
 -4.589629751086431e-05    8    1    7    5
 -0.002391150868797333    8    1    7    6
 -0.00145717963217292    8    1    7    7
 0.009938789618385584    8    1    8    1
 -0.01388433690433609    8    2    1    1
 -0.002866860982417964    8    2    2    1
 -0.006909676766088364    8    2    2    2
 3.749492181127936e-06    8    2    3    1
 -0.003745955241875889    8    2    3    2
 -0.03930998951196659    8    2    3    3
 -0.0004652183791555474    8    2    4    1
 0.000431427899230622    8    2    4    2
 -8.085056091273131e-05    8    2    4    3
 -0.0497485060919626    8    2    4    4
 0.000134441364548437    8    2    5    1
 -0.000523262676262397    8    2    5    2
 1.514308385422531e-05    8    2    5    3
 0.0002766901404488254    8    2    5    4
 -0.03593784283554113    8    2    5    5
 0.0006622315617163389    8    2    6    1
 -0.00026873631682107    8    2    6    2
 -0.0001912383795614248    8    2    6    3
 0.002580777978955686    8    2    6    4
 -0.0004356008637854545    8    2    6    5
 -0.04104176818591362    8    2    6    6
 0.0005476883936092352    8    2    7    1
 -0.01946382497976307    8    2    7    2
 -0.005103866224653986    8    2    7    3
 0.0002325668343735875    8    2    7    4
 0.0001124142260527787    8    2    7    5
 0.0002199056660793552    8    2    7    6
 -0.03079546698562531    8    2    7    7
 -0.000140409642874608    8    2    8    1
 0.01527387918149805    8    2    8    2
 0.008445765777059766    8    3    1    1
 4.439714413911925e-05    8    3    2    1
 0.006711477529101828    8    3    2    2
 -0.0001791360203403102    8    3    3    1
 0.0003007136075120511    8    3    3    2
 0.01864713268104667    8    3    3    3
 8.139736270464672e-05    8    3    4    1
 -0.0001145269691027862    8    3    4    2
 2.216838965700005e-05    8    3    4    3
 0.02487279998853405    8    3    4    4
 2.640948011591042e-05    8    3    5    1
 0.0001815560202891793    8    3    5    2
 -0.0002358605270455125    8    3    5    3
 -0.0001056053970457161    8    3    5    4
 0.01406930926693387    8    3    5    5
 0.0001433123270416926    8    3    6    1
 4.52074457443076e-05    8    3    6    2
 -1.367120385708896e-06    8    3    6    3
 0.002813195986079986    8    3    6    4
 -6.770194964382157e-05    8    3    6    5
 0.007578400363292903    8    3    6    6
 0.0002252017227651047    8    3    7    1
 0.00620908783466426    8    3    7    2
 0.001646944108621919    8    3    7    3
 -2.884216720993821e-05    8    3    7    4
 0.0001557808337307512    8    3    7    5
 7.494877918147511e-05    8    3    7    6
 0.0178539176643817    8    3    7    7
 -0.0002309567938607254    8    3    8    1
 -0.002540988871145571    8    3    8    2
 0.0109902767861709    8    3    8    3
 0.0006808505243162289    8    4    1    1
 -0.001618851493106187    8    4    2    1
 0.0005602913625245284    8    4    2    2
 -0.002105634399297151    8    4    3    1
 -0.0002111767290414706    8    4    3    2
 -0.0002240820709138397    8    4    3    3
 -0.002244899952341441    8    4    4    1
 -0.05533667469255002    8    4    4    2
 0.008988324072074059    8    4    4    3
 -0.0002252808082292094    8    4    4    4
 -0.02419614444234995    8    4    5    1
 0.0006258791247309245    8    4    5    2
 0.000595417285512569    8    4    5    3
 -0.0002588109319640181    8    4    5    4
 -0.0002369706380357613    8    4    5    5
 0.001858076144231025    8    4    6    1
 0.009056260701542931    8    4    6    2
 0.045792690749965    8    4    6    3
 -0.0005203148703013564    8    4    6    4
 0.002858100918830085    8    4    6    5
 -0.0006384446491243187    8    4    6    6
 -0.000731951300171287    8    4    7    1
 -1.424376726619485e-05    8    4    7    2
 -0.000958738774643738    8    4    7    3
 -0.08806065018515601    8    4    7    4
 -9.631754661716617e-05    8    4    7    5
 -0.03107747706467804    8    4    7    6
 -0.0005700711228778994    8    4    7    7
 0.003000083762270593    8    4    8    1
 -0.0001252572676566103    8    4    8    2
 -2.795245619297648e-05    8    4    8    3
 0.0620422845073134    8    4    8    4
 -0.0005671708666689873    8    5    1    1
 1.311465301666754e-05    8    5    2    1
 -0.0002340138540749333    8    5    2    2
 9.035805907008115e-05    8    5    3    1
 -8.232474850887076e-05    8    5    3    2
 -0.0003996414995511602    8    5    3    3
 0.0009514516234199851    8    5    4    1
 0.001926165248868463    8    5    4    2
 -0.0002007060237284715    8    5    4    3
 -0.0009675696643370742    8    5    4    4
 0.0008366850029537388    8    5    5    1
 -0.002394389262035262    8    5    5    2
 0.001709725170206333    8    5    5    3
 -1.112114302149648e-06    8    5    5    4
 -0.0007456579032052714    8    5    5    5
 0.001128707562299078    8    5    6    1
 -0.000527112177664016    8    5    6    2
 -0.001754752983679519    8    5    6    3
 0.0002020797014594252    8    5    6    4
 -0.0001349330074658051    8    5    6    5
 -0.001518762916719411    8    5    6    6
 -4.191372070351809e-05    8    5    7    1
 -0.000390089999785258    8    5    7    2
 -0.000171392194779505    8    5    7    3
 0.002775020685376748    8    5    7    4
 0.001133157613610101    8    5    7    5
 0.001214767711630033    8    5    7    6
 -0.0008542243495918977    8    5    7    7
 -5.403382118936574e-05    8    5    8    1
 0.0004088335121356253    8    5    8    2
 -0.0001458236135679917    8    5    8    3
 -0.001798390419620699    8    5    8    4
 0.009863446408595402    8    5    8    5
 -0.001197404950935212    8    6    1    1
 0.002201810206550459    8    6    2    1
 -0.001091638515153411    8    6    2    2
 0.002837389801545004    8    6    3    1
 0.000243606073703941    8    6    3    2
 -0.0001589170016490809    8    6    3    3
 0.002801875033452988    8    6    4    1
 0.06759892474678174    8    6    4    2
 -0.008829483995572094    8    6    4    3
 -0.0002461402175043513    8    6    4    4
 0.03369565472941861    8    6    5    1
 -0.0009815641531648492    8    6    5    2
 -0.0009211726333280395    8    6    5    3
 0.0004355678866263217    8    6    5    4
 -0.0001221935761493932    8    6    5    5
 -0.002519485174838138    8    6    6    1
 -0.01001212176159325    8    6    6    2
 -0.0676680523404507    8    6    6    3
 0.0006326530952058339    8    6    6    4
 -0.004534916921590221    8    6    6    5
 0.000649111636953494    8    6    6    6
 0.0001499472993883614    8    6    7    1
 -4.291602361118123e-05    8    6    7    2
 0.001229400013784633    8    6    7    3
 0.1079921505219053    8    6    7    4
 0.0004467441248364407    8    6    7    5
 0.05150101885684254    8    6    7    6
 0.0002631105012510451    8    6    7    7
 -0.003917683609467232    8    6    8    1
 0.0002503419528377991    8    6    8    2
 -1.491987972170006e-05    8    6    8    3
 -0.07101157349521196    8    6    8    4
 0.002516788514811071    8    6    8    5
 0.1063064774616681    8    6    8    6
 -0.01145201596974573    8    7    1    1
 0.0008211528132058646    8    7    2    1
 -0.01070774607770601    8    7    2    2
 0.0001661937074054762    8    7    3    1
 -0.003573839141092857    8    7    3    2
 -0.01161365844742624    8    7    3    3
 -0.0003162765566050101    8    7    4    1
 -0.0002654104555172993    8    7    4    2
 1.88134428846741e-05    8    7    4    3
 -0.01523634577463937    8    7    4    4
 -0.0001848271834666407    8    7    5    1
 0.0001440113038225505    8    7    5    2
 2.998552788189924e-05    8    7    5    3
 0.0001177104455568539    8    7    5    4
 -0.00973359661322838    8    7    5    5
 -0.0002907185364632504    8    7    6    1
 8.326395887396431e-05    8    7    6    2
 0.0003468975394118803    8    7    6    3
 0.003061777088365909    8    7    6    4
 0.0002248826189333255    8    7    6    5
 -0.0007391222456725438    8    7    6    6
 -9.822653365053306e-05    8    7    7    1
 0.002784796090898859    8    7    7    2
 -0.001353870902482053    8    7    7    3
 -0.0005182661529837962    8    7    7    4
 -8.863592045988071e-05    8    7    7    5
 -0.0002461006100556864    8    7    7    6
 -0.01194516489876216    8    7    7    7
 0.0002315159821797061    8    7    8    1
 -0.0006480539132170593    8    7    8    2
 -0.001670858301470661    8    7    8    3
 0.0003142508643322575    8    7    8    4
 -0.0003135424489912236    8    7    8    5
 -0.0004297277301181753    8    7    8    6
 0.00981981462235916    8    7    8    7
 0.2741578794303735    8    8    1    1
 0.001251211295932889    8    8    2    1
 0.2312191276374709    8    8    2    2
 -0.0003715221617894494    8    8    3    1
 0.02418127241848419    8    8    3    2
 0.3495953631630782    8    8    3    3
 0.002102402477864923    8    8    4    1
 -0.0009209809415107182    8    8    4    2
 0.0002301918301312767    8    8    4    3
 0.3795655433789886    8    8    4    4
 -2.37295925385748e-05    8    8    5    1
 0.001357552049897314    8    8    5    2
 -0.0001837891472707967    8    8    5    3
 -0.0004348244221293382    8    8    5    4
 0.3280802421540638    8    8    5    5
 -0.0009548895061671041    8    8    6    1
 0.0004031450374245231    8    8    6    2
 0.0002437320676758456    8    8    6    3
 -0.002702873351369974    8    8    6    4
 0.0002105704714100384    8    8    6    5
 0.345732394932208    8    8    6    6
 0.000840682569033575    8    8    7    1
 0.05336890003443127    8    8    7    2
 0.01643874916742242    8    8    7    3
 3.354244916317851e-05    8    8    7    4
 0.0004797813686305649    8    8    7    5
 -0.0003122485445600436    8    8    7    6
 0.3287777987524749    8    8    7    7
 -0.001617406455554921    8    8    8    1
 -0.03535808703465106    8    8    8    2
 0.01500921371466993    8    8    8    3
 -5.852556211538806e-05    8    8    8    4
 -0.0007191005231516326    8    8    8    5
 -0.0003129001981451007    8    8    8    6
 -0.008904253696458326    8    8    8    7
 0.3349267852444409    8    8    8    8
 -0.003322444458511056    9    1    1    1
 0.001565025758122603    9    1    2    1
 -0.001880277098957992    9    1    2    2
 0.002518220581376174    9    1    3    1
 -0.0003341620722597969    9    1    3    2
 -0.005055865804317872    9    1    3    3
 0.002362836048981295    9    1    4    1
 0.05265686636861721    9    1    4    2
 -0.01119452501805876    9    1    4    3
 -0.005791679862003379    9    1    4    4
 0.02663193919348986    9    1    5    1
 -0.000262132324937916    9    1    5    2
 -0.0006877732963992723    9    1    5    3
 0.000189351350484413    9    1    5    4
 -0.004501796121860532    9    1    5    5
 -0.001991303924998702    9    1    6    1
 -0.008286568460669453    9    1    6    2
 -0.05227403915574234    9    1    6    3
 0.0003863177766749295    9    1    6    4
 -0.003488000258425871    9    1    6    5
 -0.004660636124305002    9    1    6    6
 -4.541648106611832e-05    9    1    7    1
 -0.001978293794171088    9    1    7    2
 0.0005906430043710548    9    1    7    3
 0.08814574737914287    9    1    7    4
 0.0004010213858297813    9    1    7    5
 0.03804960403230834    9    1    7    6
 -0.003831949857314535    9    1    7    7
 -0.00312249746760007    9    1    8    1
 0.001357835833226519    9    1    8    2
 -0.0002868391584408742    9    1    8    3
 -0.05362074337475019    9    1    8    4
 0.002044952984246148    9    1    8    5
 0.07173630921460801    9    1    8    6
 -0.0004551108082605448    9    1    8    7